#------------------------------------------------------------------------------
#$Date: 2018-09-27 07:13:35 +0300 (Thu, 27 Sep 2018) $
#$Revision: 211196 $
#$URL: file:///home/coder/svn-repositories/cod/cif/2/31/09/2310945.cif $
#------------------------------------------------------------------------------
#
# This file is available in the Crystallography Open Database (COD),
# http://www.crystallography.net/. The original data for this entry
# were provided by IUCr Journals, http://journals.iucr.org/.
#
# The file may be used within the scientific community so long as
# proper attribution is given to the journal article from which the
# data were obtained.
#
data_2310945
loop_
_publ_author_name
'James, P.B.'
'Lavik, M.T.'
_publ_section_title
;
 The crystal structure of Mo Se2
;
_journal_name_full               'Acta Crystallographica (1,1948-23,1967)'
_journal_page_first              1183
_journal_page_last               1183
_journal_volume                  16
_journal_year                    1963
_chemical_formula_sum            'Mo Se2'
_space_group_IT_number           194
_symmetry_space_group_name_Hall  '-P 6c 2c'
_symmetry_space_group_name_H-M   'P 63/m m c'
_cell_angle_alpha                90
_cell_angle_beta                 90
_cell_angle_gamma                120
_cell_formula_units_Z            2
_cell_length_a                   3.288
_cell_length_b                   3.288
_cell_length_c                   12.9
_cell_volume                     120.777
_citation_journal_id_ASTM        ACCRA9
_cod_data_source_file            James_ACCRA9_1963_726.cif
_cod_data_source_block           Mo1Se2
_cod_original_cell_volume        120.7769
_cod_original_formula_sum        'Mo1 Se2'
_cod_database_code               2310945
loop_
_symmetry_equiv_pos_as_xyz
x,y,z
x-y,x,z+1/2
-y,x-y,z
-x,-y,z+1/2
-x+y,-x,z
y,-x+y,z+1/2
-y,-x,-z+1/2
x-y,-y,-z
x,x-y,-z+1/2
y,x,-z
-x+y,y,-z+1/2
-x,-x+y,-z
-x,-y,-z
-x+y,-x,-z-1/2
y,-x+y,-z
x,y,-z-1/2
x-y,x,-z
-y,x-y,-z-1/2
y,x,z-1/2
-x+y,y,z
-x,-x+y,z-1/2
-y,-x,z
x-y,-y,z-1/2
x,x-y,z
loop_
_atom_site_label
_atom_site_type_symbol
_atom_site_fract_x
_atom_site_fract_y
_atom_site_fract_z
_atom_site_occupancy
_atom_site_U_iso_or_equiv
Se1 Se 0.3333 0.6667 0.625 1 0.0
Mo1 Mo 0.3333 0.6667 0.25 1 0.0
