#------------------------------------------------------------------------------
#$Date: 2024-05-16 09:36:09 +0300 (Thu, 16 May 2024) $
#$Revision: 291877 $
#$URL: file:///home/coder/svn-repositories/cod/cif/9/01/21/9012193.cif $
#------------------------------------------------------------------------------
#
# This file is available in the Crystallography Open Database (COD),
# http://www.crystallography.net/. The original data for this entry
# were provided the American Mineralogist Crystal Structure Database,
# http://rruff.geo.arizona.edu/AMS/amcsd.php
#
# The file may be used within the scientific community so long as
# proper attribution is given to the journal article from which the
# data were obtained.
#
data_9012193
loop_
_publ_author_name
'Schutte, W. J.'
'de Boer, J. L.'
'Jellinek, F.'
_publ_section_title
;
 Crystal structures of tungsten disulfide and diselenide
;
_journal_name_full               'Journal of Solid State Chemistry'
_journal_page_first              207
_journal_page_last               209
_journal_paper_doi               10.1016/0022-4596(87)90057-0
_journal_volume                  70
_journal_year                    1987
_chemical_formula_sum            'Se2 W'
_chemical_name_mineral           WSe2
_space_group_IT_number           194
_symmetry_space_group_name_Hall  '-P 6c 2c'
_symmetry_space_group_name_H-M   'P 63/m m c'
_cell_angle_alpha                90
_cell_angle_beta                 90
_cell_angle_gamma                120
_cell_length_a                   3.282
_cell_length_b                   3.282
_cell_length_c                   12.96
_cell_formula_units_Z            2
_cell_volume                     120.896
_database_code_amcsd             0013603
_exptl_crystal_density_diffrn    9.389
_cod_original_formula_sum        'W Se2'
_cod_database_code               9012193
_amcsd_formula_title             WSe2
loop_
_space_group_symop_operation_xyz
x,y,z
-x,-x+y,1/2+z
x,x-y,1/2-z
-x+y,-x,1/2-z
x-y,x,1/2+z
-y,-x,z
y,x,-z
y,-x+y,-z
-y,x-y,z
x-y,-y,1/2+z
-x+y,y,1/2-z
x,y,1/2-z
-x,-y,1/2+z
x,x-y,z
-x,-x+y,-z
x-y,x,-z
-x+y,-x,z
y,x,1/2+z
-y,-x,1/2-z
-y,x-y,1/2-z
y,-x+y,1/2+z
-x+y,y,z
x-y,-y,-z
-x,-y,-z
loop_
_atom_site_label
_atom_site_fract_x
_atom_site_fract_y
_atom_site_fract_z
W 0.33333 0.66667 0.25000
Se 0.33333 0.66667 0.62110
loop_
_cod_related_entry_id
_cod_related_entry_database
_cod_related_entry_code
1 AMCSD 0013603
