#------------------------------------------------------------------------------
#$Date: 2024-05-06 10:39:41 +0300 (Mon, 06 May 2024) $
#$Revision: 291735 $
#$URL: file:///home/coder/svn-repositories/cod/cif/9/00/87/9008785.cif $
#------------------------------------------------------------------------------
#
# This file is available in the Crystallography Open Database (COD),
# http://www.crystallography.net/. The original data for this entry
# were provided the American Mineralogist Crystal Structure Database,
# http://rruff.geo.arizona.edu/AMS/amcsd.php
#
# The file may be used within the scientific community so long as
# proper attribution is given to the journal article from which the
# data were obtained.
#
data_9008785
loop_
_publ_author_name
'Wyckoff, R. W. G.'
_publ_section_title
;
 Second edition. Interscience Publishers, New York, New York
;
_journal_name_full               'Crystal Structures'
_journal_page_first              85
_journal_page_last               237
_journal_volume                  1
_journal_year                    1963
_chemical_formula_sum            'S Sn'
_chemical_name_mineral           Herzenbergite
_space_group_IT_number           62
_symmetry_space_group_name_Hall  '-P 2c 2ab'
_symmetry_space_group_name_H-M   'P b n m'
_cell_angle_alpha                90
_cell_angle_beta                 90
_cell_angle_gamma                90
_cell_length_a                   4.33
_cell_length_b                   11.18
_cell_length_c                   3.98
_cell_volume                     192.669
_cell_formula_units_Z            4
_database_code_amcsd             0011463
_exptl_crystal_density_diffrn    5.198
_cod_original_formula_sum        'Sn S'
_cod_database_code               9008785
loop_
_space_group_symop_operation_xyz
x,y,z
x,y,1/2-z
-x,-y,1/2+z
1/2+x,1/2-y,1/2+z
1/2-x,1/2+y,1/2-z
1/2-x,1/2+y,z
1/2+x,1/2-y,-z
-x,-y,-z
loop_
_atom_site_label
_atom_site_fract_x
_atom_site_fract_y
_atom_site_fract_z
Sn 0.11500 0.11800 0.25000
S 0.47800 -0.15000 0.25000
loop_
_cod_related_entry_id
_cod_related_entry_database
_cod_related_entry_code
1 AMCSD 0011463
