#------------------------------------------------------------------------------
#$Date: 2012-02-28 15:44:07 +0000 (Tue, 28 Feb 2012) $
#$Revision: 35913 $
#$URL: file:///home/coder/svn-repositories/cod/cif/9/00/81/9008122.cif $
#------------------------------------------------------------------------------
#
# This file is available in the Crystallography Open Database (COD),
# http://www.crystallography.net/. The original data for this entry
# were provided the American Mineralogist Crystal Structure Database,
# http://rruff.geo.arizona.edu/AMS/amcsd.php
#
# The file may be used within the scientific community so long as
# proper attribution is given to the journal article from which the
# data were obtained.
#
data_9008122
loop_
_publ_author_name
'McDonald, W. S.'
'Cruickshank, D. W. J.'
_publ_section_title
;
 Refinement of the structure of hemimorphite
 Locality: sample is from the same batch of crystals used by
 Barclay and Cox (1960)
 Note: Photographic Data
;
_journal_name_full               'Zeitschrift fur Kristallographie'
_journal_page_first              180
_journal_page_last               191
_journal_volume                  124
_journal_year                    1967
_chemical_formula_sum            'H2 O5 Si Zn2'
_chemical_name_mineral           Hemimorphite
_space_group_IT_number           44
_symmetry_space_group_name_Hall  'I 2 -2'
_symmetry_space_group_name_H-M   'I m m 2'
_cell_angle_alpha                90
_cell_angle_beta                 90
_cell_angle_gamma                90
_cell_length_a                   8.373
_cell_length_b                   10.718
_cell_length_c                   5.12
_cell_volume                     459.478
_exptl_crystal_density_diffrn    3.482
_[local]_cod_chemical_formula_sum_orig 'Zn2 Si O5 H2'
_cod_database_code               9008122
_amcsd_database_code             AMCSD#0010313
loop_
_symmetry_equiv_pos_as_xyz
x,y,z
1/2+x,1/2+y,1/2+z
x,-y,z
1/2+x,1/2-y,1/2+z
-x,y,z
1/2-x,1/2+y,1/2+z
-x,-y,z
1/2-x,1/2-y,1/2+z
loop_
_atom_site_aniso_label
_atom_site_aniso_U_11
_atom_site_aniso_U_22
_atom_site_aniso_U_33
_atom_site_aniso_U_12
_atom_site_aniso_U_13
_atom_site_aniso_U_23
Zn 0.01300 0.01600 0.01600 -0.00250 -0.00200 -0.00100
Si 0.01200 0.01400 0.00900 0.00000 0.00000 0.00000
O1 0.01300 0.02000 0.02100 -0.01200 -0.00600 -0.00850
O2 0.01200 0.01700 0.01500 0.00000 0.00000 0.00150
OH3 0.02900 0.01400 0.05000 0.00000 0.00000 0.00000
O4 0.02200 0.01800 0.03100 0.00000 0.00000 0.00000
Wat5 0.07000 0.19100 0.00900 0.00000 0.00000 0.00000
loop_
_atom_site_label
_atom_site_fract_x
_atom_site_fract_y
_atom_site_fract_z
Zn 0.20440 0.16110 0.00000
Si 0.00000 0.14740 0.50830
O1 0.15850 0.20890 0.63700
O2 0.00000 0.16870 0.19090
O-H3 0.30880 0.00000 0.03960
O4 0.00000 0.00000 0.58160
Wat5 0.50000 0.00000 0.50510
